VARIABLES="X_VAL","Y_VAL","Temperature"
ZONE F=POINT
I=100, J=100
0  0  100.000100
0  1  100.000000
0  2  100.000000
0  3  100.000000
0  4  100.000000
0  5  100.000000
0  6  100.000000
0  7  100.000000
0  8  100.000000
0  9  100.000000
0  10  100.000000
0  11  100.000000
0  12  100.000000
0  13  100.000000
0  14  100.000000
0  15  100.000000
0  16  100.000000
0  17  100.000000
0  18  100.000000
0  19  100.000000
0  20  100.000000
0  21  100.000000
0  22  100.000000
0  23  100.000000
0  24  100.000000
0  25  100.000000
0  26  100.000000
0  27  100.000000
0  28  100.000000
0  29  100.000000
0  30  100.000000
0  31  100.000000
0  32  100.000000
0  33  100.000000
0  34  100.000000
0  35  100.000000
0  36  100.000000
0  37  100.000000
0  38  100.000000
0  39  100.000000
0  40  100.000000
0  41  100.000000
0  42  100.000000
0  43  100.000000
0  44  100.000000
0  45  100.000000
0  46  100.000000
0  47  100.000000
0  48  100.000000
0  49  100.000000
0  50  100.000000
0  51  100.000000
0  52  100.000000
0  53  100.000000
0  54  100.000000
0  55  100.000000
0  56  100.000000
0  57  100.000000
0  58  100.000000
0  59  100.000000
0  60  100.000000
0  61  100.000000
0  62  100.000000
0  63  100.000000
0  64  100.000000
0  65  100.000000
0  66  100.000000
0  67  100.000000
0  68  100.000000
0  69  100.000000
0  70  100.000000
0  71  100.000000
0  72  100.000000
0  73  100.000000
0  74  100.000000
0  75  100.000000
0  76  100.000000
0  77  100.000000
0  78  100.000000
0  79  100.000000
0  80  100.000000
0  81  100.000000
0  82  100.000000
0  83  100.000000
0  84  100.000000
0  85  100.000000
0  86  100.000000
0  87  100.000000
0  88  100.000000
0  89  100.000000
0  90  100.000000
0  91  100.000000
0  92  100.000000
0  93  100.000000
0  94  100.000000
0  95  100.000000
0  96  100.000000
0  97  100.000000
0  98  100.000000
0  99  100.000000
1  0  100.000200
1  1  100.280001
1  2  100.508848
1  3  100.706866
1  4  100.883529
1  5  101.044025
1  6  101.191551
1  7  101.328260
1  8  101.455693
1  9  101.575006
1  10  101.687102
1  11  101.792699
1  12  101.892388
1  13  101.986660
1  14  102.075927
1  15  102.160547
1  16  102.240826
1  17  102.317032
1  18  102.389402
1  19  102.458145
1  20  102.523448
1  21  102.585477
1  22  102.644384
1  23  102.700304
1  24  102.753361
1  25  102.803668
1  26  102.851327
1  27  102.896431
1  28  102.939066
1  29  102.979311
1  30  103.017238
1  31  103.052914
1  32  103.086398
1  33  103.117747
1  34  103.147011
1  35  103.174239
1  36  103.199472
1  37  103.222750
1  38  103.244107
1  39  103.263578
1  40  103.281189
1  41  103.296968
1  42  103.310938
1  43  103.323117
1  44  103.333525
1  45  103.342176
1  46  103.349082
1  47  103.354253
1  48  103.357697
1  49  103.359417
1  50  103.359417
1  51  103.357697
1  52  103.354253
1  53  103.349082
1  54  103.342176
1  55  103.333525
1  56  103.323117
1  57  103.310937
1  58  103.296968
1  59  103.281189
1  60  103.263577
1  61  103.244107
1  62  103.222749
1  63  103.199471
1  64  103.174238
1  65  103.147011
1  66  103.117746
1  67  103.086397
1  68  103.052912
1  69  103.017237
1  70  102.979310
1  71  102.939064
1  72  102.896429
1  73  102.851324
1  74  102.803666
1  75  102.753359
1  76  102.700301
1  77  102.644380
1  78  102.585473
1  79  102.523444
1  80  102.458141
1  81  102.389398
1  82  102.317027
1  83  102.240820
1  84  102.160541
1  85  102.075920
1  86  101.986652
1  87  101.892380
1  88  101.792690
1  89  101.687091
1  90  101.574994
1  91  101.455678
1  92  101.328243
1  93  101.191531
1  94  101.044000
1  95  100.883498
1  96  100.706825
1  97  100.508788
1  98  100.279901
1  99  100.000000
2  0  100.000200
2  1  100.508927
2  2  100.946493
2  3  101.333058
2  4  101.681196
2  5  101.998988
2  6  102.291890
2  7  102.563766
2  8  102.817474
2  9  103.055200
2  10  103.278671
2  11  103.489277
2  12  103.688165
2  13  103.876292
2  14  104.054473
2  15  104.223405
2  16  104.383694
2  17  104.535871
2  18  104.680401
2  19  104.817701
2  20  104.948138
2  21  105.072046
2  22  105.189723
2  23  105.301440
2  24  105.407443
2  25  105.507954
2  26  105.603177
2  27  105.693300
2  28  105.778492
2  29  105.858910
2  30  105.934698
2  31  106.005988
2  32  106.072901
2  33  106.135547
2  34  106.194030
2  35  106.248442
2  36  106.298869
2  37  106.345389
2  38  106.388072
2  39  106.426984
2  40  106.462181
2  41  106.493716
2  42  106.521634
2  43  106.545977
2  44  106.566778
2  45  106.584067
2  46  106.597870
2  47  106.608205
2  48  106.615086
2  49  106.618525
2  50  106.618525
2  51  106.615086
2  52  106.608204
2  53  106.597869
2  54  106.584067
2  55  106.566777
2  56  106.545976
2  57  106.521634
2  58  106.493715
2  59  106.462180
2  60  106.426983
2  61  106.388071
2  62  106.345388
2  63  106.298868
2  64  106.248440
2  65  106.194028
2  66  106.135545
2  67  106.072899
2  68  106.005986
2  69  105.934696
2  70  105.858907
2  71  105.778489
2  72  105.693296
2  73  105.603173
2  74  105.507949
2  75  105.407438
2  76  105.301435
2  77  105.189717
2  78  105.072039
2  79  104.948130
2  80  104.817692
2  81  104.680392
2  82  104.535860
2  83  104.383683
2  84  104.223392
2  85  104.054459
2  86  103.876276
2  87  103.688147
2  88  103.489258
2  89  103.278649
2  90  103.055175
2  91  102.817445
2  92  102.563733
2  93  102.291851
2  94  101.998941
2  95  101.681138
2  96  101.332984
2  97  100.946393
2  98  100.508788
2  99  100.000000
3  0  100.000200
3  1  100.706983
3  2  101.333107
3  3  101.895647
3  4  102.407178
3  5  102.876812
3  6  103.311224
3  7  103.715410
3  8  104.093205
3  9  104.447620
3  10  104.781074
3  11  105.095543
3  12  105.392671
3  13  105.673841
3  14  105.940236
3  15  106.192875
3  16  106.432645
3  17  106.660325
3  18  106.876602
3  19  107.082087
3  20  107.277328
3  21  107.462816
3  22  107.638993
3  23  107.806262
3  24  107.964985
3  25  108.115497
3  26  108.258099
3  27  108.393069
3  28  108.520662
3  29  108.641110
3  30  108.754627
3  31  108.861410
3  32  108.961640
3  33  109.055482
3  34  109.143089
3  35  109.224600
3  36  109.300143
3  37  109.369834
3  38  109.433779
3  39  109.492074
3  40  109.544805
3  41  109.592050
3  42  109.633878
3  43  109.670347
3  44  109.701512
3  45  109.727415
3  46  109.748095
3  47  109.763579
3  48  109.773889
3  49  109.779041
3  50  109.779041
3  51  109.773889
3  52  109.763579
3  53  109.748094
3  54  109.727415
3  55  109.701511
3  56  109.670347
3  57  109.633877
3  58  109.592049
3  59  109.544804
3  60  109.492073
3  61  109.433778
3  62  109.369832
3  63  109.300141
3  64  109.224598
3  65  109.143087
3  66  109.055479
3  67  108.961637
3  68  108.861406
3  69  108.754623
3  70  108.641105
3  71  108.520657
3  72  108.393064
3  73  108.258093
3  74  108.115490
3  75  107.964978
3  76  107.806253
3  77  107.638984
3  78  107.462805
3  79  107.277317
3  80  107.082075
3  81  106.876588
3  82  106.660310
3  83  106.432628
3  84  106.192856
3  85  105.940215
3  86  105.673818
3  87  105.392645
3  88  105.095515
3  89  104.781042
3  90  104.447584
3  91  104.093163
3  92  103.715362
3  93  103.311168
3  94  102.876746
3  95  102.407098
3  96  101.895549
3  97  101.332984
3  98  100.706825
3  99  100.000000
4  0  100.000200
4  1  100.883666
4  2  101.681277
4  3  102.407214
4  4  103.073027
4  5  103.687829
4  6  104.258753
4  7  104.791415
4  8  105.290285
4  9  105.758972
4  10  106.200433
4  11  106.617121
4  12  107.011103
4  13  107.384135
4  14  107.737725
4  15  108.073184
4  16  108.391657
4  17  108.694152
4  18  108.981563
4  19  109.254688
4  20  109.514242
4  21  109.760866
4  22  109.995142
4  23  110.217597
4  24  110.428711
4  25  110.628919
4  26  110.818623
4  27  110.998187
4  28  111.167946
4  29  111.328210
4  30  111.479259
4  31  111.621355
4  32  111.754736
4  33  111.879622
4  34  111.996214
4  35  112.104697
4  36  112.205240
4  37  112.297996
4  38  112.383107
4  39  112.460699
4  40  112.530886
4  41  112.593773
4  42  112.649448
4  43  112.697993
4  44  112.739477
4  45  112.773958
4  46  112.801485
4  47  112.822097
4  48  112.835822
4  49  112.842679
4  50  112.842679
4  51  112.835821
4  52  112.822096
4  53  112.801484
4  54  112.773957
4  55  112.739476
4  56  112.697992
4  57  112.649447
4  58  112.593771
4  59  112.530885
4  60  112.460697
4  61  112.383104
4  62  112.297994
4  63  112.205237
4  64  112.104694
4  65  111.996211
4  66  111.879618
4  67  111.754732
4  68  111.621350
4  69  111.479254
4  70  111.328204
4  71  111.167940
4  72  110.998179
4  73  110.818615
4  74  110.628910
4  75  110.428701
4  76  110.217586
4  77  109.995130
4  78  109.760852
4  79  109.514226
4  80  109.254672
4  81  108.981545
4  82  108.694132
4  83  108.391635
4  84  108.073160
4  85  107.737698
4  86  107.384104
4  87  107.011070
4  88  106.617084
4  89  106.200390
4  90  105.758925
4  91  105.290231
4  92  104.791354
4  93  104.258682
4  94  103.687746
4  95  103.072930
4  96  102.407098
4  97  101.681138
4  98  100.883498
4  99  100.000000
5  0  100.000200
5  1  101.044174
5  2  101.999091
5  3  102.876874
5  4  103.687857
5  5  104.440692
5  6  105.142515
5  7  105.799182
5  8  106.415518
5  9  106.995520
5  10  107.542532
5  11  108.059376
5  12  108.548456
5  13  109.011839
5  14  109.451316
5  15  109.868450
5  16  110.264616
5  17  110.641033
5  18  110.998781
5  19  111.338832
5  20  111.662054
5  21  111.969234
5  22  112.261082
5  23  112.538245
5  24  112.801311
5  25  113.050818
5  26  113.287257
5  27  113.511079
5  28  113.722698
5  29  113.922494
5  30  114.110816
5  31  114.287986
5  32  114.454299
5  33  114.610027
5  34  114.755419
5  35  114.890704
5  36  115.016092
5  37  115.131774
5  38  115.237923
5  39  115.334697
5  40  115.422239
5  41  115.500676
5  42  115.570120
5  43  115.630671
5  44  115.682415
5  45  115.725425
5  46  115.759761
5  47  115.785471
5  48  115.802592
5  49  115.811146
5  50  115.811146
5  51  115.802591
5  52  115.785471
5  53  115.759760
5  54  115.725424
5  55  115.682414
5  56  115.630670
5  57  115.570119
5  58  115.500674
5  59  115.422237
5  60  115.334695
5  61  115.237920
5  62  115.131771
5  63  115.016089
5  64  114.890701
5  65  114.755415
5  66  114.610022
5  67  114.454293
5  68  114.287980
5  69  114.110809
5  70  113.922486
5  71  113.722689
5  72  113.511069
5  73  113.287246
5  74  113.050806
5  75  112.801298
5  76  112.538231
5  77  112.261067
5  78  111.969217
5  79  111.662035
5  80  111.338811
5  81  110.998759
5  82  110.641008
5  83  110.264589
5  84  109.868419
5  85  109.451282
5  86  109.011802
5  87  108.548415
5  88  108.059330
5  89  107.542481
5  90  106.995463
5  91  106.415453
5  92  105.799109
5  93  105.142431
5  94  104.440596
5  95  103.687746
5  96  102.876746
5  97  101.998941
5  98  101.044000
5  99  100.000000
6  0  100.000200
6  1  101.191709
6  2  102.292008
6  3  103.311306
6  4  104.258803
6  5  105.142538
6  6  105.969401
6  7  106.745251
6  8  107.475054
6  9  108.163028
6  10  108.812769
6  11  109.427365
6  12  110.009477
6  13  110.561421
6  14  111.085219
6  15  111.582653
6  16  112.055296
6  17  112.504551
6  18  112.931668
6  19  113.337773
6  20  113.723879
6  21  114.090903
6  22  114.439678
6  23  114.770959
6  24  115.085441
6  25  115.383754
6  26  115.666477
6  27  115.934144
6  28  116.187242
6  29  116.426222
6  30  116.651495
6  31  116.863443
6  32  117.062417
6  33  117.248737
6  34  117.422701
6  35  117.584580
6  36  117.734622
6  37  117.873054
6  38  118.000084
6  39  118.115899
6  40  118.220668
6  41  118.314542
6  42  118.397655
6  43  118.470127
6  44  118.532058
6  45  118.583536
6  46  118.624634
6  47  118.655407
6  48  118.675898
6  49  118.686137
6  50  118.686137
6  51  118.675898
6  52  118.655406
6  53  118.624633
6  54  118.583535
6  55  118.532057
6  56  118.470125
6  57  118.397654
6  58  118.314540
6  59  118.220666
6  60  118.115897
6  61  118.000081
6  62  117.873051
6  63  117.734618
6  64  117.584575
6  65  117.422696
6  66  117.248732
6  67  117.062410
6  68  116.863436
6  69  116.651487
6  70  116.426213
6  71  116.187233
6  72  115.934133
6  73  115.666465
6  74  115.383740
6  75  115.085426
6  76  114.770943
6  77  114.439659
6  78  114.090883
6  79  113.723857
6  80  113.337749
6  81  112.931641
6  82  112.504521
6  83  112.055264
6  84  111.582617
6  85  111.085180
6  86  110.561377
6  87  110.009429
6  88  109.427311
6  89  108.812710
6  90  108.162962
6  91  107.474980
6  92  106.745168
6  93  105.969307
6  94  105.142431
6  95  104.258682
6  96  103.311168
6  97  102.291851
6  98  101.191531
6  99  100.000000
7  0  100.000200
7  1  101.328424
7  2  102.563895
7  3  103.715507
7  4  104.791483
7  5  105.799224
7  6  106.745271
7  7  107.635337
7  8  108.474390
7  9  109.266738
7  10  110.016123
7  11  110.725806
7  12  111.398636
7  13  112.037117
7  14  112.643458
7  15  113.219616
7  16  113.767335
7  17  114.288176
7  18  114.783538
7  19  115.254684
7  20  115.702757
7  21  116.128793
7  22  116.533736
7  23  116.918445
7  24  117.283709
7  25  117.630249
7  26  117.958726
7  27  118.269749
7  28  118.563877
7  29  118.841626
7  30  119.103470
7  31  119.349846
7  32  119.581158
7  33  119.797775
7  34  120.000039
7  35  120.188262
7  36  120.362731
7  37  120.523708
7  38  120.671432
7  39  120.806118
7  40  120.927962
7  41  121.037139
7  42  121.133804
7  43  121.218093
7  44  121.290125
7  45  121.350000
7  46  121.397801
7  47  121.433594
7  48  121.457429
7  49  121.469338
7  50  121.469338
7  51  121.457429
7  52  121.433594
7  53  121.397800
7  54  121.349999
7  55  121.290123
7  56  121.218091
7  57  121.133802
7  58  121.037137
7  59  120.927959
7  60  120.806115
7  61  120.671428
7  62  120.523704
7  63  120.362727
7  64  120.188257
7  65  120.000033
7  66  119.797769
7  67  119.581151
7  68  119.349838
7  69  119.103461
7  70  118.841615
7  71  118.563865
7  72  118.269736
7  73  117.958712
7  74  117.630233
7  75  117.283692
7  76  116.918426
7  77  116.533715
7  78  116.128770
7  79  115.702732
7  80  115.254656
7  81  114.783507
7  82  114.288142
7  83  113.767298
7  84  113.219575
7  85  112.643413
7  86  112.037068
7  87  111.398582
7  88  110.725746
7  89  110.016056
7  90  109.266664
7  91  108.474308
7  92  107.635245
7  93  106.745168
7  94  105.799109
7  95  104.791354
7  96  103.715362
7  97  102.563733
7  98  101.328243
7  99  100.000000
8  0  100.000200
8  1  101.455861
8  2  102.817611
8  3  104.093313
8  4  105.290367
8  5  106.415576
8  6  107.475090
8  7  108.474407
8  8  109.418401
8  9  110.311380
8  10  111.157150
8  11  111.959070
8  12  112.720115
8  13  113.442924
8  14  114.129849
8  15  114.782988
8  16  115.404224
8  17  115.995250
8  18  116.557593
8  19  117.092639
8  20  117.601642
8  21  118.085747
8  22  118.545997
8  23  118.983347
8  24  119.398673
8  25  119.792778
8  26  120.166399
8  27  120.520219
8  28  120.854861
8  29  121.170905
8  30  121.468883
8  31  121.749285
8  32  122.012564
8  33  122.259138
8  34  122.489389
8  35  122.703670
8  36  122.902304
8  37  123.085587
8  38  123.253787
8  39  123.407150
8  40  123.545895
8  41  123.670219
8  42  123.780299
8  43  123.876288
8  44  123.958319
8  45  124.026508
8  46  124.080947
8  47  124.121711
8  48  124.148856
8  49  124.162420
8  50  124.162419
8  51  124.148856
8  52  124.121710
8  53  124.080946
8  54  124.026507
8  55  123.958318
8  56  123.876286
8  57  123.780296
8  58  123.670216
8  59  123.545892
8  60  123.407146
8  61  123.253783
8  62  123.085582
8  63  122.902299
8  64  122.703664
8  65  122.489382
8  66  122.259130
8  67  122.012556
8  68  121.749276
8  69  121.468872
8  70  121.170894
8  71  120.854848
8  72  120.520204
8  73  120.166383
8  74  119.792760
8  75  119.398654
8  76  118.983326
8  77  118.545973
8  78  118.085721
8  79  117.601614
8  80  117.092608
8  81  116.557559
8  82  115.995212
8  83  115.404182
8  84  114.782942
8  85  114.129799
8  86  113.442869
8  87  112.720054
8  88  111.959003
8  89  111.157076
8  90  110.311299
8  91  109.418311
8  92  108.474308
8  93  107.474980
8  94  106.415454
8  95  105.290232
8  96  104.093163
8  97  102.817445
8  98  101.455678
8  99  100.000000
9  0  100.000200
9  1  101.575178
9  2  103.055344
9  3  104.447738
9  4  105.759065
9  5  106.995591
9  6  108.163078
9  7  109.266769
9  8  110.311395
9  9  111.301203
9  10  112.239996
9  11  113.131179
9  12  113.977799
9  13  114.782587
9  14  115.547996
9  15  116.276233
9  16  116.969293
9  17  117.628976
9  18  118.256918
9  19  118.854606
9  20  119.423396
9  21  119.964526
9  22  120.479129
9  23  120.968245
9  24  121.432829
9  25  121.873759
9  26  122.291846
9  27  122.687835
9  28  123.062416
9  29  123.416222
9  30  123.749842
9  31  124.063818
9  32  124.358648
9  33  124.634793
9  34  124.892679
9  35  125.132695
9  36  125.355199
9  37  125.560519
9  38  125.748952
9  39  125.920771
9  40  126.076219
9  41  126.215515
9  42  126.338855
9  43  126.446410
9  44  126.538329
9  45  126.614737
9  46  126.675739
9  47  126.721418
9  48  126.751837
9  49  126.767035
9  50  126.767035
9  51  126.751836
9  52  126.721417
9  53  126.675738
9  54  126.614735
9  55  126.538327
9  56  126.446408
9  57  126.338853
9  58  126.215512
9  59  126.076215
9  60  125.920767
9  61  125.748948
9  62  125.560514
9  63  125.355193
9  64  125.132688
9  65  124.892672
9  66  124.634785
9  67  124.358638
9  68  124.063807
9  69  123.749831
9  70  123.416209
9  71  123.062401
9  72  122.687820
9  73  122.291829
9  74  121.873740
9  75  121.432807
9  76  120.968221
9  77  120.479103
9  78  119.964497
9  79  119.423365
9  80  118.854572
9  81  118.256880
9  82  117.628934
9  83  116.969247
9  84  116.276184
9  85  115.547941
9  86  114.782527
9  87  113.977733
9  88  113.131107
9  89  112.239917
9  90  111.301116
9  91  110.311299
9  92  109.266664
9  93  108.162962
9  94  106.995463
9  95  105.758925
9  96  104.447584
9  97  103.055176
9  98  101.574994
9  99  100.000000
10  0  100.000200
10  1  101.687276
10  2  103.278821
10  3  104.781200
10  4  106.200535
10  5  107.542614
10  6  108.812832
10  7  110.016168
10  8  111.157178
10  9  112.240009
10  10  113.268423
10  11  114.245822
10  12  115.175285
10  13  116.059599
10  14  116.901284
10  15  117.702628
10  16  118.465708
10  17  119.192413
10  18  119.884467
10  19  120.543443
10  20  121.170781
10  21  121.767802
10  22  122.335718
10  23  122.875645
10  24  123.388608
10  25  123.875556
10  26  124.337362
10  27  124.774832
10  28  125.188714
10  29  125.579697
10  30  125.948418
10  31  126.295466
10  32  126.621386
10  33  126.926680
10  34  127.211810
10  35  127.477203
10  36  127.723250
10  37  127.950308
10  38  128.158703
10  39  128.348733
10  40  128.520665
10  41  128.674739
10  42  128.811168
10  43  128.930141
10  44  129.031820
10  45  129.116343
10  46  129.183825
10  47  129.234357
10  48  129.268008
10  49  129.284822
10  50  129.284821
10  51  129.268007
10  52  129.234356
10  53  129.183824
10  54  129.116341
10  55  129.031818
10  56  128.930139
10  57  128.811165
10  58  128.674736
10  59  128.520661
10  60  128.348729
10  61  128.158698
10  62  127.950302
10  63  127.723243
10  64  127.477196
10  65  127.211802
10  66  126.926671
10  67  126.621376
10  68  126.295455
10  69  125.948405
10  70  125.579683
10  71  125.188699
10  72  124.774815
10  73  124.337342
10  74  123.875535
10  75  123.388585
10  76  122.875619
10  77  122.335690
10  78  121.767771
10  79  121.170747
10  80  120.543405
10  81  119.884426
10  82  119.192368
10  83  118.465659
10  84  117.702574
10  85  116.901225
10  86  116.059534
10  87  115.175215
10  88  114.245745
10  89  113.268338
10  90  112.239917
10  91  111.157077
10  92  110.016057
10  93  108.812711
10  94  107.542482
10  95  106.200391
10  96  104.781043
10  97  103.278649
10  98  101.687091
10  99  100.000000
11  0  100.000200
11  1  101.792876
11  2  103.489431
11  3  105.095675
11  4  106.617232
11  5  108.059467
11  6  109.427437
11  7  110.725862
11  8  111.959110
11  9  113.131204
11  10  114.245834
11  11  115.306370
11  12  116.315892
11  13  117.277209
11  14  118.192884
11  15  119.065257
11  16  119.896468
11  17  120.688473
11  18  121.443064
11  19  122.161888
11  20  122.846454
11  21  123.498154
11  22  124.118269
11  23  124.707979
11  24  125.268375
11  25  125.800466
11  26  126.305183
11  27  126.783389
11  28  127.235883
11  29  127.663404
11  30  128.066637
11  31  128.446215
11  32  128.802722
11  33  129.136701
11  34  129.448650
11  35  129.739029
11  36  130.008261
11  37  130.256730
11  38  130.484792
11  39  130.692765
11  40  130.880941
11  41  131.049578
11  42  131.198909
11  43  131.329137
11  44  131.440437
11  45  131.532961
11  46  131.606832
11  47  131.662150
11  48  131.698987
11  49  131.717393
11  50  131.717393
11  51  131.698986
11  52  131.662149
11  53  131.606831
11  54  131.532960
11  55  131.440435
11  56  131.329134
11  57  131.198906
11  58  131.049575
11  59  130.880937
11  60  130.692761
11  61  130.484786
11  62  130.256724
11  63  130.008254
11  64  129.739022
11  65  129.448642
11  66  129.136691
11  67  128.802711
11  68  128.446202
11  69  128.066623
11  70  127.663389
11  71  127.235866
11  72  126.783370
11  73  126.305162
11  74  125.800443
11  75  125.268350
11  76  124.707951
11  77  124.118238
11  78  123.498121
11  79  122.846418
11  80  122.161848
11  81  121.443020
11  82  120.688425
11  83  119.896415
11  84  119.065200
11  85  118.192821
11  86  117.277140
11  87  116.315817
11  88  115.306289
11  89  114.245745
11  90  113.131107
11  91  111.959004
11  92  110.725746
11  93  109.427312
11  94  108.059331
11  95  106.617085
11  96  105.095515
11  97  103.489258
11  98  101.792690
11  99  100.000000
12  0  100.000200
12  1  101.892567
12  2  103.688322
12  3  105.392808
12  4  107.011221
12  5  108.548556
12  6  110.009559
12  7  111.398702
12  8  112.720165
12  9  113.977835
12  10  115.175308
12  11  116.315903
12  12  117.402675
12  13  118.438432
12  14  119.425756
12  15  120.367020
12  16  121.264405
12  17  122.119916
12  18  122.935401
12  19  123.712561
12  20  124.452965
12  21  125.158063
12  22  125.829194
12  23  126.467597
12  24  127.074418
12  25  127.650720
12  26  128.197486
12  27  128.715629
12  28  129.205996
12  29  129.669372
12  30  130.106483
12  31  130.518004
12  32  130.904558
12  33  131.266723
12  34  131.605032
12  35  131.919975
12  36  132.212004
12  37  132.481533
12  38  132.728939
12  39  132.954567
12  40  133.158726
12  41  133.341696
12  42  133.503725
12  43  133.645031
12  44  133.765804
12  45  133.866204
12  46  133.946365
12  47  134.006394
12  48  134.046369
12  49  134.066343
12  50  134.066343
12  51  134.046368
12  52  134.006393
12  53  133.946364
12  54  133.866202
12  55  133.765802
12  56  133.645029
12  57  133.503722
12  58  133.341693
12  59  133.158722
12  60  132.954562
12  61  132.728933
12  62  132.481526
12  63  132.211997
12  64  131.919967
12  65  131.605023
12  66  131.266713
12  67  130.904546
12  68  130.517991
12  69  130.106468
12  70  129.669355
12  71  129.205978
12  72  128.715609
12  73  128.197463
12  74  127.650695
12  75  127.074391
12  76  126.467567
12  77  125.829162
12  78  125.158027
12  79  124.452926
12  80  123.712518
12  81  122.935354
12  82  122.119865
12  83  121.264349
12  84  120.366959
12  85  119.425690
12  86  118.438359
12  87  117.402596
12  88  116.315818
12  89  115.175215
12  90  113.977734
12  91  112.720055
12  92  111.398583
12  93  110.009430
12  94  108.548416
12  95  107.011071
12  96  105.392646
12  97  103.688148
12  98  101.892380
12  99  100.000000
13  0  100.000200
13  1  101.986840
13  2  103.876453
13  3  105.673983
13  4  107.384259
13  5  109.011946
13  6  110.561510
13  7  112.037191
13  8  113.442984
13  9  114.782633
13  10  116.059632
13  11  117.277230
13  12  118.438442
13  13  119.546058
13  14  120.602659
13  15  121.610633
13  16  122.572186
13  17  123.489357
13  18  124.364033
13  19  125.197959
13  20  125.992753
13  21  126.749910
13  22  127.470819
13  23  128.156769
13  24  128.808952
13  25  129.428480
13  26  130.016383
13  27  130.573617
13  28  131.101073
13  29  131.599575
13  30  132.069891
13  31  132.512731
13  32  132.928755
13  33  133.318574
13  34  133.682751
13  35  134.021806
13  36  134.336220
13  37  134.626429
13  38  134.892837
13  39  135.135808
13  40  135.355673
13  41  135.552727
13  42  135.727236
13  43  135.879431
13  44  136.009514
13  45  136.117658
13  46  136.204003
13  47  136.268663
13  48  136.311723
13  49  136.333239
13  50  136.333239
13  51  136.311723
13  52  136.268662
13  53  136.204001
13  54  136.117656
13  55  136.009512
13  56  135.879428
13  57  135.727232
13  58  135.552723
13  59  135.355668
13  60  135.135803
13  61  134.892831
13  62  134.626422
13  63  134.336212
13  64  134.021797
13  65  133.682741
13  66  133.318563
13  67  132.928743
13  68  132.512717
13  69  132.069875
13  70  131.599557
13  71  131.101053
13  72  130.573596
13  73  130.016359
13  74  129.428454
13  75  128.808924
13  76  128.156737
13  77  127.470785
13  78  126.749872
13  79  125.992711
13  80  125.197914
13  81  124.363983
13  82  123.489303
13  83  122.572127
13  84  121.610569
13  85  120.602590
13  86  119.545982
13  87  118.438360
13  88  117.277141
13  89  116.059535
13  90  114.782528
13  91  113.442871
13  92  112.037069
13  93  110.561379
13  94  109.011804
13  95  107.384106
13  96  105.673819
13  97  103.876277
13  98  101.986652
13  99  100.000000
14  0  100.000200
14  1  102.076109
14  2  104.054636
14  3  105.940382
14  4  107.737854
14  5  109.451428
14  6  111.085316
14  7  112.643540
14  8  114.129916
14  9  115.548050
14  10  116.901326
14  11  118.192914
14  12  119.425776
14  13  120.602668
14  14  121.726160
14  15  122.798638
14  16  123.822319
14  17  124.799263
14  18  125.731385
14  19  126.620463
14  20  127.468148
14  21  128.275976
14  22  129.045376
14  23  129.777676
14  24  130.474113
14  25  131.135837
14  26  131.763919
14  27  132.359356
14  28  132.923074
14  29  133.455936
14  30  133.958745
14  31  134.432246
14  32  134.877130
14  33  135.294038
14  34  135.683563
14  35  136.046252
14  36  136.382610
14  37  136.693100
14  38  136.978144
14  39  137.238128
14  40  137.473401
14  41  137.684276
14  42  137.871032
14  43  138.033914
14  44  138.173137
14  45  138.288881
14  46  138.381297
14  47  138.450505
14  48  138.496594
14  49  138.519623
14  50  138.519623
14  51  138.496593
14  52  138.450504
14  53  138.381296
14  54  138.288879
14  55  138.173135
14  56  138.033911
14  57  137.871028
14  58  137.684272
14  59  137.473396
14  60  137.238123
14  61  136.978138
14  62  136.693092
14  63  136.382602
14  64  136.046243
14  65  135.683552
14  66  135.294026
14  67  134.877116
14  68  134.432231
14  69  133.958728
14  70  133.455918
14  71  132.923053
14  72  132.359333
14  73  131.763894
14  74  131.135810
14  75  130.474083
14  76  129.777643
14  77  129.045340
14  78  128.275936
14  79  127.468104
14  80  126.620415
14  81  125.731334
14  82  124.799207
14  83  123.822258
14  84  122.798571
14  85  121.726088
14  86  120.602590
14  87  119.425691
14  88  118.192822
14  89  116.901226
14  90  115.547943
14  91  114.129801
14  92  112.643415
14  93  111.085182
14  94  109.451284
14  95  107.737699
14  96  105.940216
14  97  104.054459
14  98  102.075921
14  99  100.000000
15  0  100.000200
15  1  102.160730
15  2  104.223571
15  3  106.193025
15  4  108.073318
15  5  109.868568
15  6  111.582756
15  7  113.219705
15  8  114.783063
15  9  116.276296
15  10  117.702678
15  11  119.065296
15  12  120.367048
15  13  121.610651
15  14  122.798647
15  15  123.933410
15  16  125.017159
15  17  126.051964
15  18  127.039754
15  19  127.982329
15  20  128.881370
15  21  129.738441
15  22  130.555003
15  23  131.332419
15  24  132.071959
15  25  132.774808
15  26  133.442073
15  27  134.074784
15  28  134.673902
15  29  135.240322
15  30  135.774880
15  31  136.278349
15  32  136.751452
15  33  137.194856
15  34  137.609182
15  35  137.995001
15  36  138.352841
15  37  138.683187
15  38  138.986483
15  39  139.263132
15  40  139.513500
15  41  139.737916
15  42  139.936673
15  43  140.110030
15  44  140.258210
15  45  140.381405
15  46  140.479772
15  47  140.553438
15  48  140.602496
15  49  140.627010
15  50  140.627009
15  51  140.602495
15  52  140.553437
15  53  140.479771